 ----------------------------------------------------------------------
 #p b3lyp 6-31G nosymm scf=(conver=6) mmpol=(conver=8,nofmm,jacobi,dyn)
  force
 ----------------------------------------------------------------------

 ONIOM QM/MMPol HL=Cytosine LL=Guanine FREE (Init Geom MP2) CHARGES = f
 f02r1
 ----------------------------------------------------------------------
 Symbolic Z-matrix:
 Charge =  0 Multiplicity = 1

                          Input orientation:
 ---------------------------------------------------------------------
 Center     Atomic      Atomic             Coordinates (Angstroms)
 Number     Number       Type             X           Y           Z
 ---------------------------------------------------------------------
      1          6           0       33.360000   29.261000   32.214000
      2          6           0       34.056000   29.345000   31.071000
      3          6           0       33.408000   29.326000   29.848000
      4          6           0       32.001000   29.348000   29.812000
      5          6           0       31.282000   29.382000   30.966000
      6          6           0       31.961000   29.312000   32.175000
      7          1           0       33.892000   29.274000   33.161000
      8          1           0       35.141000   29.366000   31.084000
      9          6           0       34.161000   29.356000   28.543000
     10          1           0       30.201000   29.482000   30.927000
     11          1           0       31.403000   29.442000   33.098000
     12          6           0       31.968000   29.288000   27.422000
     13          6           0       33.348000   29.322000   27.316000
     14          6           0       31.030000   29.280000   26.257000
     15          6           0       31.428000   29.309000   24.901000
     16          6           0       29.638000   29.286000   26.531000
     17          6           0       30.520000   29.340000   23.884000
     18          1           0       32.488000   29.298000   24.668000
     19          6           0       28.697000   29.233000   25.545000
     20          1           0       29.266000   29.199000   27.547000
     21          6           0       29.112000   29.336000   24.212000
     22          1           0       30.825000   29.406000   22.844000
     23          1           0       27.659000   29.128000   25.847000
     24          1           0       28.427000   29.193000   23.382000
     25          8           0       31.315000   29.338000   28.598000
     26          8           0       35.373000   29.397000   28.461000
     27          8           0       34.128000   29.410000   26.227000
     28          1           0       35.016000   29.198000   26.564000
 ---------------------------------------------------------------------

 SCF Done:  E(RB3LYP) =  -804.258699965     A.U. after   12 cycles

 Alpha  occ. eigenvalues --  -19.23669 -19.18717 -19.15273 -10.29195 -10.29031
 Alpha  occ. eigenvalues --  -10.28331 -10.26774 -10.22247 -10.22122 -10.21431
 Alpha  occ. eigenvalues --  -10.21328 -10.20665 -10.20583 -10.20473 -10.20214
 Alpha  occ. eigenvalues --  -10.20004 -10.19913 -10.19848  -1.14190  -1.11388
 Alpha  occ. eigenvalues --   -1.06809  -0.90168  -0.87726  -0.82409  -0.79787
 Alpha  occ. eigenvalues --   -0.78166  -0.77064  -0.75258  -0.68400  -0.66929
 Alpha  occ. eigenvalues --   -0.62989  -0.61787  -0.61189  -0.59337  -0.56622
 Alpha  occ. eigenvalues --   -0.55111  -0.52851  -0.50852  -0.49104  -0.48969
 Alpha  occ. eigenvalues --   -0.47684  -0.46548  -0.46200  -0.44728  -0.44676
 Alpha  occ. eigenvalues --   -0.43957  -0.43505  -0.40798  -0.40531  -0.40080
 Alpha  occ. eigenvalues --   -0.38240  -0.38029  -0.36819  -0.36505  -0.36328
 Alpha  occ. eigenvalues --   -0.34004  -0.29706  -0.28268  -0.28020  -0.27532
 Alpha  occ. eigenvalues --   -0.25990  -0.22061
 Alpha virt. eigenvalues --   -0.07854  -0.03604  -0.01256  -0.00645   0.01585
 Alpha virt. eigenvalues --    0.06935   0.08314   0.08697   0.08919   0.11845
 Alpha virt. eigenvalues --    0.12970   0.13614   0.15102   0.15529   0.16299

 Mulliken charges:
               1
     1  C   -0.121603
     2  C   -0.107465
     3  C    0.091913
     4  C    0.260552
     5  C   -0.131198
     6  C   -0.155253
     7  H    0.142626
     8  H    0.151316
     9  C    0.187766
    10  H    0.136372
    11  H    0.178068
    12  C    0.316730
    13  C    0.277203
    14  C    0.045483
    15  C   -0.161312
    16  C   -0.168412
    17  C   -0.146421
    18  H    0.180499
    19  C   -0.151969
    20  H    0.140345
    21  C   -0.104310
    22  H    0.128021
    23  H    0.177244
    24  H    0.116287
    25  O   -0.584437
    26  O   -0.478946
    27  O   -0.619011
    28  H    0.399910
 Sum of Mulliken charges =   0.00000

 Dipole moment (field-independent basis, Debye):
    X=             -2.7210    Y=             -0.4465    Z=              2.6352  Tot=              3.8141
 Quadrupole moment (field-independent basis, Debye-Ang):
   XX=           -277.8748   YY=           -132.1596   ZZ=             64.9083
   XY=            -95.1665   XZ=             10.3355   YZ=             67.0061

 Normal termination of Gaussian DV at Tue Apr 18 16:48:34 2017.
